+ 1.127202 0 1 exp 500 ------- 0 0.0 1.0 0 0
- 1.127202 0 1 exp 500 ------- 0 0.0 1.0 0 0
r 1.141202 0 1 exp 500 ------- 0 0.0 1.0 0 0
+ 1.167202 0 1 exp 500 ------- 0 0.0 1.0 1 1
- 1.167202 0 1 exp 500 ------- 0 0.0 1.0 1 1
r 1.181202 0 1 exp 500 ------- 0 0.0 1.0 1 1
+ 1.207202 0 1 exp 500 ------- 0 0.0 1.0 2 2
- 1.207202 0 1 exp 500 ------- 0 0.0 1.0 2 2
r 1.221202 0 1 exp 500 ------- 0 0.0 1.0 2 2
+ 1.247202 0 1 exp 500 ------- 0 0.0 1.0 3 3
- 1.247202 0 1 exp 500 ------- 0 0.0 1.0 3 3
r 1.261202 0 1 exp 500 ------- 0 0.0 1.0 3 3
+ 1.287202 0 1 exp 500 ------- 0 0.0 1.0 4 4
- 1.287202 0 1 exp 500 ------- 0 0.0 1.0 4 4
r 1.301202 0 1 exp 500 ------- 0 0.0 1.0 4 4
+ 1.327202 0 1 exp 500 ------- 0 0.0 1.0 5 5
- 1.327202 0 1 exp 500 ------- 0 0.0 1.0 5 5
r 1.341202 0 1 exp 500 ------- 0 0.0 1.0 5 5
+ 1.367202 0 1 exp 500 ------- 0 0.0 1.0 6 6
- 1.367202 0 1 exp 500 ------- 0 0.0 1.0 6 6
r 1.381202 0 1 exp 500 ------- 0 0.0 1.0 6 6
+ 1.407202 0 1 exp 500 ------- 0 0.0 1.0 7 7
- 1.407202 0 1 exp 500 ------- 0 0.0 1.0 7 7
r 1.421202 0 1 exp 500 ------- 0 0.0 1.0 7 7
+ 1.447202 0 1 exp 500 ------- 0 0.0 1.0 8 8
- 1.447202 0 1 exp 500 ------- 0 0.0 1.0 8 8
r 1.461202 0 1 exp 500 ------- 0 0.0 1.0 8 8
+ 1.487202 0 1 exp 500 ------- 0 0.0 1.0 9 9
- 1.487202 0 1 exp 500 ------- 0 0.0 1.0 9 9
+ 1.5 0 1 cbr 500 ------- 0 0.0 1.0 10 10
- 1.5 0 1 cbr 500 ------- 0 0.0 1.0 10 10
r 1.501202 0 1 exp 500 ------- 0 0.0 1.0 9 9
+ 1.505 0 1 cbr 500 ------- 0 0.0 1.0 11 11
- 1.505 0 1 cbr 500 ------- 0 0.0 1.0 11 11
+ 1.51 0 1 cbr 500 ------- 0 0.0 1.0 12 12
- 1.51 0 1 cbr 500 ------- 0 0.0 1.0 12 12
r 1.514 0 1 cbr 500 ------- 0 0.0 1.0 10 10
+ 1.515 0 1 cbr 500 ------- 0 0.0 1.0 13 13
- 1.515 0 1 cbr 500 ------- 0 0.0 1.0 13 13
r 1.519 0 1 cbr 500 ------- 0 0.0 1.0 11 11
+ 1.52 0 1 cbr 500 ------- 0 0.0 1.0 14 14
- 1.52 0 1 cbr 500 ------- 0 0.0 1.0 14 14
r 1.524 0 1 cbr 500 ------- 0 0.0 1.0 12 12
+ 1.525 0 1 cbr 500 ------- 0 0.0 1.0 15 15
- 1.525 0 1 cbr 500 ------- 0 0.0 1.0 15 15
+ 1.527202 0 1 cbr 500 ------- 0 0.0 1.0 16 16
- 1.529 0 1 cbr 500 ------- 0 0.0 1.0 16 16
r 1.529 0 1 cbr 500 ------- 0 0.0 1.0 13 13
+ 1.53 0 1 cbr 500 ------- 0 0.0 1.0 17 17
- 1.533 0 1 cbr 500 ------- 0 0.0 1.0 17 17
r 1.534 0 1 cbr 500 ------- 0 0.0 1.0 14 14
+ 1.535 0 1 cbr 500 ------- 0 0.0 1.0 18 18
- 1.537 0 1 cbr 500 ------- 0 0.0 1.0 18 18
r 1.539 0 1 cbr 500 ------- 0 0.0 1.0 15 15
+ 1.54 0 1 cbr 500 ------- 0 0.0 1.0 19 19
- 1.541 0 1 cbr 500 ------- 0 0.0 1.0 19 19
r 1.543 0 1 cbr 500 ------- 0 0.0 1.0 16 16
+ 1.545 0 1 cbr 500 ------- 0 0.0 1.0 20 20
- 1.545 0 1 cbr 500 ------- 0 0.0 1.0 20 20
r 1.547 0 1 cbr 500 ------- 0 0.0 1.0 17 17
+ 1.55 0 1 cbr 500 ------- 0 0.0 1.0 21 21
- 1.55 0 1 cbr 500 ------- 0 0.0 1.0 21 21
r 1.551 0 1 cbr 500 ------- 0 0.0 1.0 18 18
+ 1.555 0 1 cbr 500 ------- 0 0.0 1.0 22 22
- 1.555 0 1 cbr 500 ------- 0 0.0 1.0 22 22
r 1.555 0 1 cbr 500 ------- 0 0.0 1.0 19 19
r 1.559 0 1 cbr 500 ------- 0 0.0 1.0 20 20
+ 1.56 0 1 cbr 500 ------- 0 0.0 1.0 23 23
- 1.56 0 1 cbr 500 ------- 0 0.0 1.0 23 23
r 1.564 0 1 cbr 500 ------- 0 0.0 1.0 21 21
+ 1.565 0 1 cbr 500 ------- 0 0.0 1.0 24 24
- 1.565 0 1 cbr 500 ------- 0 0.0 1.0 24 24
+ 1.567202 0 1 cbr 500 ------- 0 0.0 1.0 25 25
- 1.569 0 1 cbr 500 ------- 0 0.0 1.0 25 25
r 1.569 0 1 cbr 500 ------- 0 0.0 1.0 22 22
+ 1.57 0 1 cbr 500 ------- 0 0.0 1.0 26 26
- 1.573 0 1 cbr 500 ------- 0 0.0 1.0 26 26
r 1.574 0 1 cbr 500 ------- 0 0.0 1.0 23 23
+ 1.575 0 1 cbr 500 ------- 0 0.0 1.0 27 27
- 1.577 0 1 cbr 500 ------- 0 0.0 1.0 27 27
r 1.579 0 1 cbr 500 ------- 0 0.0 1.0 24 24
+ 1.58 0 1 cbr 500 ------- 0 0.0 1.0 28 28
- 1.581 0 1 cbr 500 ------- 0 0.0 1.0 28 28
r 1.583 0 1 cbr 500 ------- 0 0.0 1.0 25 25
+ 1.585 0 1 cbr 500 ------- 0 0.0 1.0 29 29
- 1.585 0 1 cbr 500 ------- 0 0.0 1.0 29 29
r 1.587 0 1 cbr 500 ------- 0 0.0 1.0 26 26
+ 1.59 0 1 cbr 500 ------- 0 0.0 1.0 30 30
- 1.59 0 1 cbr 500 ------- 0 0.0 1.0 30 30
r 1.591 0 1 cbr 500 ------- 0 0.0 1.0 27 27
+ 1.595 0 1 cbr 500 ------- 0 0.0 1.0 31 31
- 1.595 0 1 cbr 500 ------- 0 0.0 1.0 31 31
r 1.595 0 1 cbr 500 ------- 0 0.0 1.0 28 28
r 1.599 0 1 cbr 500 ------- 0 0.0 1.0 29 29
+ 1.6 0 1 cbr 500 ------- 0 0.0 1.0 32 32
- 1.6 0 1 cbr 500 ------- 0 0.0 1.0 32 32
r 1.604 0 1 cbr 500 ------- 0 0.0 1.0 30 30
+ 1.605 0 1 cbr 500 ------- 0 0.0 1.0 33 33
- 1.605 0 1 cbr 500 ------- 0 0.0 1.0 33 33
+ 1.607202 0 1 cbr 500 ------- 0 0.0 1.0 34 34
- 1.609 0 1 cbr 500 ------- 0 0.0 1.0 34 34
r 1.609 0 1 cbr 500 ------- 0 0.0 1.0 31 31
+ 1.61 0 1 cbr 500 ------- 0 0.0 1.0 35 35
- 1.613 0 1 cbr 500 ------- 0 0.0 1.0 35 35
r 1.614 0 1 cbr 500 ------- 0 0.0 1.0 32 32
+ 1.615 0 1 cbr 500 ------- 0 0.0 1.0 36 36
- 1.617 0 1 cbr 500 ------- 0 0.0 1.0 36 36
r 1.619 0 1 cbr 500 ------- 0 0.0 1.0 33 33
+ 1.62 0 1 cbr 500 ------- 0 0.0 1.0 37 37
- 1.621 0 1 cbr 500 ------- 0 0.0 1.0 37 37
r 1.623 0 1 cbr 500 ------- 0 0.0 1.0 34 34
+ 1.625 0 1 cbr 500 ------- 0 0.0 1.0 38 38
- 1.625 0 1 cbr 500 ------- 0 0.0 1.0 38 38
r 1.627 0 1 cbr 500 ------- 0 0.0 1.0 35 35
+ 1.63 0 1 cbr 500 ------- 0 0.0 1.0 39 39
- 1.63 0 1 cbr 500 ------- 0 0.0 1.0 39 39
r 1.631 0 1 cbr 500 ------- 0 0.0 1.0 36 36
+ 1.635 0 1 cbr 500 ------- 0 0.0 1.0 40 40
- 1.635 0 1 cbr 500 ------- 0 0.0 1.0 40 40
r 1.635 0 1 cbr 500 ------- 0 0.0 1.0 37 37
r 1.639 0 1 cbr 500 ------- 0 0.0 1.0 38 38
+ 1.64 0 1 cbr 500 ------- 0 0.0 1.0 41 41
- 1.64 0 1 cbr 500 ------- 0 0.0 1.0 41 41
r 1.644 0 1 cbr 500 ------- 0 0.0 1.0 39 39
+ 1.645 0 1 cbr 500 ------- 0 0.0 1.0 42 42
- 1.645 0 1 cbr 500 ------- 0 0.0 1.0 42 42
+ 1.647202 0 1 cbr 500 ------- 0 0.0 1.0 43 43
- 1.649 0 1 cbr 500 ------- 0 0.0 1.0 43 43
r 1.649 0 1 cbr 500 ------- 0 0.0 1.0 40 40
+ 1.65 0 1 cbr 500 ------- 0 0.0 1.0 44 44
- 1.653 0 1 cbr 500 ------- 0 0.0 1.0 44 44
r 1.654 0 1 cbr 500 ------- 0 0.0 1.0 41 41
+ 1.655 0 1 cbr 500 ------- 0 0.0 1.0 45 45
- 1.657 0 1 cbr 500 ------- 0 0.0 1.0 45 45
r 1.659 0 1 cbr 500 ------- 0 0.0 1.0 42 42
+ 1.66 0 1 cbr 500 ------- 0 0.0 1.0 46 46
- 1.661 0 1 cbr 500 ------- 0 0.0 1.0 46 46
r 1.663 0 1 cbr 500 ------- 0 0.0 1.0 43 43
+ 1.665 0 1 cbr 500 ------- 0 0.0 1.0 47 47
- 1.665 0 1 cbr 500 ------- 0 0.0 1.0 47 47
r 1.667 0 1 cbr 500 ------- 0 0.0 1.0 44 44
+ 1.67 0 1 cbr 500 ------- 0 0.0 1.0 48 48
- 1.67 0 1 cbr 500 ------- 0 0.0 1.0 48 48
r 1.671 0 1 cbr 500 ------- 0 0.0 1.0 45 45
+ 1.675 0 1 cbr 500 ------- 0 0.0 1.0 49 49
- 1.675 0 1 cbr 500 ------- 0 0.0 1.0 49 49
r 1.675 0 1 cbr 500 ------- 0 0.0 1.0 46 46
r 1.679 0 1 cbr 500 ------- 0 0.0 1.0 47 47
+ 1.68 0 1 cbr 500 ------- 0 0.0 1.0 50 50
- 1.68 0 1 cbr 500 ------- 0 0.0 1.0 50 50
r 1.684 0 1 cbr 500 ------- 0 0.0 1.0 48 48
+ 1.685 0 1 cbr 500 ------- 0 0.0 1.0 51 51
- 1.685 0 1 cbr 500 ------- 0 0.0 1.0 51 51
+ 1.687202 0 1 cbr 500 ------- 0 0.0 1.0 52 52
- 1.689 0 1 cbr 500 ------- 0 0.0 1.0 52 52
r 1.689 0 1 cbr 500 ------- 0 0.0 1.0 49 49
+ 1.69 0 1 cbr 500 ------- 0 0.0 1.0 53 53
- 1.693 0 1 cbr 500 ------- 0 0.0 1.0 53 53
r 1.694 0 1 cbr 500 ------- 0 0.0 1.0 50 50
+ 1.695 0 1 cbr 500 ------- 0 0.0 1.0 54 54
- 1.697 0 1 cbr 500 ------- 0 0.0 1.0 54 54
r 1.699 0 1 cbr 500 ------- 0 0.0 1.0 51 51
+ 1.7 0 1 cbr 500 ------- 0 0.0 1.0 55 55
- 1.701 0 1 cbr 500 ------- 0 0.0 1.0 55 55
r 1.703 0 1 cbr 500 ------- 0 0.0 1.0 52 52
+ 1.705 0 1 cbr 500 ------- 0 0.0 1.0 56 56
- 1.705 0 1 cbr 500 ------- 0 0.0 1.0 56 56
r 1.707 0 1 cbr 500 ------- 0 0.0 1.0 53 53
+ 1.71 0 1 cbr 500 ------- 0 0.0 1.0 57 57
- 1.71 0 1 cbr 500 ------- 0 0.0 1.0 57 57
r 1.711 0 1 cbr 500 ------- 0 0.0 1.0 54 54
+ 1.715 0 1 cbr 500 ------- 0 0.0 1.0 58 58
- 1.715 0 1 cbr 500 ------- 0 0.0 1.0 58 58
r 1.715 0 1 cbr 500 ------- 0 0.0 1.0 55 55
r 1.719 0 1 cbr 500 ------- 0 0.0 1.0 56 56
+ 1.72 0 1 cbr 500 ------- 0 0.0 1.0 59 59
- 1.72 0 1 cbr 500 ------- 0 0.0 1.0 59 59
r 1.724 0 1 cbr 500 ------- 0 0.0 1.0 57 57
+ 1.725 0 1 cbr 500 ------- 0 0.0 1.0 60 60
- 1.725 0 1 cbr 500 ------- 0 0.0 1.0 60 60
+ 1.727202 0 1 cbr 500 ------- 0 0.0 1.0 61 61
- 1.729 0 1 cbr 500 ------- 0 0.0 1.0 61 61
r 1.729 0 1 cbr 500 ------- 0 0.0 1.0 58 58
+ 1.73 0 1 cbr 500 ------- 0 0.0 1.0 62 62
- 1.733 0 1 cbr 500 ------- 0 0.0 1.0 62 62
r 1.734 0 1 cbr 500 ------- 0 0.0 1.0 59 59
+ 1.735 0 1 cbr 500 ------- 0 0.0 1.0 63 63
- 1.737 0 1 cbr 500 ------- 0 0.0 1.0 63 63
r 1.739 0 1 cbr 500 ------- 0 0.0 1.0 60 60
+ 1.74 0 1 cbr 500 ------- 0 0.0 1.0 64 64
- 1.741 0 1 cbr 500 ------- 0 0.0 1.0 64 64
r 1.743 0 1 cbr 500 ------- 0 0.0 1.0 61 61
+ 1.745 0 1 cbr 500 ------- 0 0.0 1.0 65 65
- 1.745 0 1 cbr 500 ------- 0 0.0 1.0 65 65
r 1.747 0 1 cbr 500 ------- 0 0.0 1.0 62 62
+ 1.75 0 1 cbr 500 ------- 0 0.0 1.0 66 66
- 1.75 0 1 cbr 500 ------- 0 0.0 1.0 66 66
r 1.751 0 1 cbr 500 ------- 0 0.0 1.0 63 63
+ 1.755 0 1 cbr 500 ------- 0 0.0 1.0 67 67
- 1.755 0 1 cbr 500 ------- 0 0.0 1.0 67 67
r 1.755 0 1 cbr 500 ------- 0 0.0 1.0 64 64
r 1.759 0 1 cbr 500 ------- 0 0.0 1.0 65 65
+ 1.76 0 1 cbr 500 ------- 0 0.0 1.0 68 68
- 1.76 0 1 cbr 500 ------- 0 0.0 1.0 68 68
r 1.764 0 1 cbr 500 ------- 0 0.0 1.0 66 66
+ 1.765 0 1 cbr 500 ------- 0 0.0 1.0 69 69
- 1.765 0 1 cbr 500 ------- 0 0.0 1.0 69 69
+ 1.767202 0 1 cbr 500 ------- 0 0.0 1.0 70 70
- 1.769 0 1 cbr 500 ------- 0 0.0 1.0 70 70
r 1.769 0 1 cbr 500 ------- 0 0.0 1.0 67 67
+ 1.77 0 1 cbr 500 ------- 0 0.0 1.0 71 71
- 1.773 0 1 cbr 500 ------- 0 0.0 1.0 71 71
r 1.774 0 1 cbr 500 ------- 0 0.0 1.0 68 68
+ 1.775 0 1 cbr 500 ------- 0 0.0 1.0 72 72
- 1.777 0 1 cbr 500 ------- 0 0.0 1.0 72 72
r 1.779 0 1 cbr 500 ------- 0 0.0 1.0 69 69
+ 1.78 0 1 cbr 500 ------- 0 0.0 1.0 73 73
- 1.781 0 1 cbr 500 ------- 0 0.0 1.0 73 73
r 1.783 0 1 cbr 500 ------- 0 0.0 1.0 70 70
+ 1.785 0 1 cbr 500 ------- 0 0.0 1.0 74 74
- 1.785 0 1 cbr 500 ------- 0 0.0 1.0 74 74
r 1.787 0 1 cbr 500 ------- 0 0.0 1.0 71 71
+ 1.79 0 1 cbr 500 ------- 0 0.0 1.0 75 75
- 1.79 0 1 cbr 500 ------- 0 0.0 1.0 75 75
r 1.791 0 1 cbr 500 ------- 0 0.0 1.0 72 72
+ 1.795 0 1 cbr 500 ------- 0 0.0 1.0 76 76
- 1.795 0 1 cbr 500 ------- 0 0.0 1.0 76 76
r 1.795 0 1 cbr 500 ------- 0 0.0 1.0 73 73
r 1.799 0 1 cbr 500 ------- 0 0.0 1.0 74 74
+ 1.8 0 1 cbr 500 ------- 0 0.0 1.0 77 77
- 1.8 0 1 cbr 500 ------- 0 0.0 1.0 77 77
r 1.804 0 1 cbr 500 ------- 0 0.0 1.0 75 75
+ 1.805 0 1 cbr 500 ------- 0 0.0 1.0 78 78
- 1.805 0 1 cbr 500 ------- 0 0.0 1.0 78 78
+ 1.807202 0 1 cbr 500 ------- 0 0.0 1.0 79 79
- 1.809 0 1 cbr 500 ------- 0 0.0 1.0 79 79
r 1.809 0 1 cbr 500 ------- 0 0.0 1.0 76 76
+ 1.81 0 1 cbr 500 ------- 0 0.0 1.0 80 80
- 1.813 0 1 cbr 500 ------- 0 0.0 1.0 80 80
r 1.814 0 1 cbr 500 ------- 0 0.0 1.0 77 77
+ 1.815 0 1 cbr 500 ------- 0 0.0 1.0 81 81
- 1.817 0 1 cbr 500 ------- 0 0.0 1.0 81 81
r 1.819 0 1 cbr 500 ------- 0 0.0 1.0 78 78
+ 1.82 0 1 cbr 500 ------- 0 0.0 1.0 82 82
- 1.821 0 1 cbr 500 ------- 0 0.0 1.0 82 82
r 1.823 0 1 cbr 500 ------- 0 0.0 1.0 79 79
+ 1.825 0 1 cbr 500 ------- 0 0.0 1.0 83 83
- 1.825 0 1 cbr 500 ------- 0 0.0 1.0 83 83
r 1.827 0 1 cbr 500 ------- 0 0.0 1.0 80 80
+ 1.83 0 1 cbr 500 ------- 0 0.0 1.0 84 84
- 1.83 0 1 cbr 500 ------- 0 0.0 1.0 84 84
r 1.831 0 1 cbr 500 ------- 0 0.0 1.0 81 81
+ 1.835 0 1 cbr 500 ------- 0 0.0 1.0 85 85
- 1.835 0 1 cbr 500 ------- 0 0.0 1.0 85 85
r 1.835 0 1 cbr 500 ------- 0 0.0 1.0 82 82
r 1.839 0 1 cbr 500 ------- 0 0.0 1.0 83 83
+ 1.84 0 1 cbr 500 ------- 0 0.0 1.0 86 86
- 1.84 0 1 cbr 500 ------- 0 0.0 1.0 86 86
r 1.844 0 1 cbr 500 ------- 0 0.0 1.0 84 84
+ 1.845 0 1 cbr 500 ------- 0 0.0 1.0 87 87
- 1.845 0 1 cbr 500 ------- 0 0.0 1.0 87 87
+ 1.847202 0 1 cbr 500 ------- 0 0.0 1.0 88 88
- 1.849 0 1 cbr 500 ------- 0 0.0 1.0 88 88
r 1.849 0 1 cbr 500 ------- 0 0.0 1.0 85 85
+ 1.85 0 1 cbr 500 ------- 0 0.0 1.0 89 89
- 1.853 0 1 cbr 500 ------- 0 0.0 1.0 89 89
r 1.854 0 1 cbr 500 ------- 0 0.0 1.0 86 86
+ 1.855 0 1 cbr 500 ------- 0 0.0 1.0 90 90
- 1.857 0 1 cbr 500 ------- 0 0.0 1.0 90 90
r 1.859 0 1 cbr 500 ------- 0 0.0 1.0 87 87
+ 1.86 0 1 cbr 500 ------- 0 0.0 1.0 91 91
- 1.861 0 1 cbr 500 ------- 0 0.0 1.0 91 91
r 1.863 0 1 cbr 500 ------- 0 0.0 1.0 88 88
+ 1.865 0 1 cbr 500 ------- 0 0.0 1.0 92 92
- 1.865 0 1 cbr 500 ------- 0 0.0 1.0 92 92
r 1.867 0 1 cbr 500 ------- 0 0.0 1.0 89 89
+ 1.87 0 1 cbr 500 ------- 0 0.0 1.0 93 93
- 1.87 0 1 cbr 500 ------- 0 0.0 1.0 93 93
r 1.871 0 1 cbr 500 ------- 0 0.0 1.0 90 90
+ 1.875 0 1 cbr 500 ------- 0 0.0 1.0 94 94
- 1.875 0 1 cbr 500 ------- 0 0.0 1.0 94 94
r 1.875 0 1 cbr 500 ------- 0 0.0 1.0 91 91
r 1.879 0 1 cbr 500 ------- 0 0.0 1.0 92 92
+ 1.88 0 1 cbr 500 ------- 0 0.0 1.0 95 95
- 1.88 0 1 cbr 500 ------- 0 0.0 1.0 95 95
r 1.884 0 1 cbr 500 ------- 0 0.0 1.0 93 93
+ 1.885 0 1 cbr 500 ------- 0 0.0 1.0 96 96
- 1.885 0 1 cbr 500 ------- 0 0.0 1.0 96 96
+ 1.887202 0 1 cbr 500 ------- 0 0.0 1.0 97 97
- 1.889 0 1 cbr 500 ------- 0 0.0 1.0 97 97
r 1.889 0 1 cbr 500 ------- 0 0.0 1.0 94 94
+ 1.89 0 1 cbr 500 ------- 0 0.0 1.0 98 98
- 1.893 0 1 cbr 500 ------- 0 0.0 1.0 98 98
r 1.894 0 1 cbr 500 ------- 0 0.0 1.0 95 95
+ 1.895 0 1 cbr 500 ------- 0 0.0 1.0 99 99
- 1.897 0 1 cbr 500 ------- 0 0.0 1.0 99 99
r 1.899 0 1 cbr 500 ------- 0 0.0 1.0 96 96
+ 1.9 0 1 cbr 500 ------- 0 0.0 1.0 100 100
- 1.901 0 1 cbr 500 ------- 0 0.0 1.0 100 100
r 1.903 0 1 cbr 500 ------- 0 0.0 1.0 97 97
+ 1.905 0 1 cbr 500 ------- 0 0.0 1.0 101 101
- 1.905 0 1 cbr 500 ------- 0 0.0 1.0 101 101
r 1.907 0 1 cbr 500 ------- 0 0.0 1.0 98 98
+ 1.91 0 1 cbr 500 ------- 0 0.0 1.0 102 102
- 1.91 0 1 cbr 500 ------- 0 0.0 1.0 102 102
r 1.911 0 1 cbr 500 ------- 0 0.0 1.0 99 99
+ 1.915 0 1 cbr 500 ------- 0 0.0 1.0 103 103
- 1.915 0 1 cbr 500 ------- 0 0.0 1.0 103 103
r 1.915 0 1 cbr 500 ------- 0 0.0 1.0 100 100
r 1.919 0 1 cbr 500 ------- 0 0.0 1.0 101 101
+ 1.92 0 1 cbr 500 ------- 0 0.0 1.0 104 104
- 1.92 0 1 cbr 500 ------- 0 0.0 1.0 104 104
r 1.924 0 1 cbr 500 ------- 0 0.0 1.0 102 102
+ 1.925 0 1 cbr 500 ------- 0 0.0 1.0 105 105
- 1.925 0 1 cbr 500 ------- 0 0.0 1.0 105 105
+ 1.927202 0 1 cbr 500 ------- 0 0.0 1.0 106 106
- 1.929 0 1 cbr 500 ------- 0 0.0 1.0 106 106
r 1.929 0 1 cbr 500 ------- 0 0.0 1.0 103 103
+ 1.93 0 1 cbr 500 ------- 0 0.0 1.0 107 107
- 1.933 0 1 cbr 500 ------- 0 0.0 1.0 107 107
r 1.934 0 1 cbr 500 ------- 0 0.0 1.0 104 104
+ 1.935 0 1 cbr 500 ------- 0 0.0 1.0 108 108
- 1.937 0 1 cbr 500 ------- 0 0.0 1.0 108 108
r 1.939 0 1 cbr 500 ------- 0 0.0 1.0 105 105
+ 1.94 0 1 cbr 500 ------- 0 0.0 1.0 109 109
- 1.941 0 1 cbr 500 ------- 0 0.0 1.0 109 109
r 1.943 0 1 cbr 500 ------- 0 0.0 1.0 106 106
+ 1.945 0 1 cbr 500 ------- 0 0.0 1.0 110 110
- 1.945 0 1 cbr 500 ------- 0 0.0 1.0 110 110
r 1.947 0 1 cbr 500 ------- 0 0.0 1.0 107 107
+ 1.95 0 1 cbr 500 ------- 0 0.0 1.0 111 111
- 1.95 0 1 cbr 500 ------- 0 0.0 1.0 111 111
r 1.951 0 1 cbr 500 ------- 0 0.0 1.0 108 108
+ 1.955 0 1 cbr 500 ------- 0 0.0 1.0 112 112
- 1.955 0 1 cbr 500 ------- 0 0.0 1.0 112 112
r 1.955 0 1 cbr 500 ------- 0 0.0 1.0 109 109
r 1.959 0 1 cbr 500 ------- 0 0.0 1.0 110 110
+ 1.96 0 1 cbr 500 ------- 0 0.0 1.0 113 113
- 1.96 0 1 cbr 500 ------- 0 0.0 1.0 113 113
r 1.964 0 1 cbr 500 ------- 0 0.0 1.0 111 111
+ 1.965 0 1 cbr 500 ------- 0 0.0 1.0 114 114
- 1.965 0 1 cbr 500 ------- 0 0.0 1.0 114 114
+ 1.967202 0 1 cbr 500 ------- 0 0.0 1.0 115 115
- 1.969 0 1 cbr 500 ------- 0 0.0 1.0 115 115
r 1.969 0 1 cbr 500 ------- 0 0.0 1.0 112 112
+ 1.97 0 1 cbr 500 ------- 0 0.0 1.0 116 116
- 1.973 0 1 cbr 500 ------- 0 0.0 1.0 116 116
r 1.974 0 1 cbr 500 ------- 0 0.0 1.0 113 113
+ 1.975 0 1 cbr 500 ------- 0 0.0 1.0 117 117
- 1.977 0 1 cbr 500 ------- 0 0.0 1.0 117 117
r 1.979 0 1 cbr 500 ------- 0 0.0 1.0 114 114
+ 1.98 0 1 cbr 500 ------- 0 0.0 1.0 118 118
- 1.981 0 1 cbr 500 ------- 0 0.0 1.0 118 118
r 1.983 0 1 cbr 500 ------- 0 0.0 1.0 115 115
+ 1.985 0 1 cbr 500 ------- 0 0.0 1.0 119 119
- 1.985 0 1 cbr 500 ------- 0 0.0 1.0 119 119
r 1.987 0 1 cbr 500 ------- 0 0.0 1.0 116 116
+ 1.99 0 1 cbr 500 ------- 0 0.0 1.0 120 120
- 1.99 0 1 cbr 500 ------- 0 0.0 1.0 120 120
r 1.991 0 1 cbr 500 ------- 0 0.0 1.0 117 117
+ 1.995 0 1 cbr 500 ------- 0 0.0 1.0 121 121
- 1.995 0 1 cbr 500 ------- 0 0.0 1.0 121 121
r 1.995 0 1 cbr 500 ------- 0 0.0 1.0 118 118
r 1.999 0 1 cbr 500 ------- 0 0.0 1.0 119 119
+ 2 0 1 cbr 500 ------- 0 0.0 1.0 122 122
- 2 0 1 cbr 500 ------- 0 0.0 1.0 122 122
r 2.004 0 1 cbr 500 ------- 0 0.0 1.0 120 120
+ 2.005 0 1 cbr 500 ------- 0 0.0 1.0 123 123
- 2.005 0 1 cbr 500 ------- 0 0.0 1.0 123 123
+ 2.007202 0 1 cbr 500 ------- 0 0.0 1.0 124 124
r 2.009 0 1 cbr 500 ------- 0 0.0 1.0 121 121
- 2.009 0 1 cbr 500 ------- 0 0.0 1.0 124 124
+ 2.01 0 1 cbr 500 ------- 0 0.0 1.0 125 125
- 2.013 0 1 cbr 500 ------- 0 0.0 1.0 125 125
r 2.014 0 1 cbr 500 ------- 0 0.0 1.0 122 122
+ 2.015 0 1 cbr 500 ------- 0 0.0 1.0 126 126
- 2.017 0 1 cbr 500 ------- 0 0.0 1.0 126 126
r 2.019 0 1 cbr 500 ------- 0 0.0 1.0 123 123
+ 2.02 0 1 cbr 500 ------- 0 0.0 1.0 127 127
- 2.021 0 1 cbr 500 ------- 0 0.0 1.0 127 127
r 2.023 0 1 cbr 500 ------- 0 0.0 1.0 124 124
+ 2.025 0 1 cbr 500 ------- 0 0.0 1.0 128 128
- 2.025 0 1 cbr 500 ------- 0 0.0 1.0 128 128
r 2.027 0 1 cbr 500 ------- 0 0.0 1.0 125 125
+ 2.03 0 1 cbr 500 ------- 0 0.0 1.0 129 129
- 2.03 0 1 cbr 500 ------- 0 0.0 1.0 129 129
r 2.031 0 1 cbr 500 ------- 0 0.0 1.0 126 126
+ 2.035 0 1 cbr 500 ------- 0 0.0 1.0 130 130
- 2.035 0 1 cbr 500 ------- 0 0.0 1.0 130 130
r 2.035 0 1 cbr 500 ------- 0 0.0 1.0 127 127
r 2.039 0 1 cbr 500 ------- 0 0.0 1.0 128 128
+ 2.04 0 1 cbr 500 ------- 0 0.0 1.0 131 131
- 2.04 0 1 cbr 500 ------- 0 0.0 1.0 131 131
r 2.044 0 1 cbr 500 ------- 0 0.0 1.0 129 129
+ 2.045 0 1 cbr 500 ------- 0 0.0 1.0 132 132
- 2.045 0 1 cbr 500 ------- 0 0.0 1.0 132 132
+ 2.047202 0 1 cbr 500 ------- 0 0.0 1.0 133 133
r 2.049 0 1 cbr 500 ------- 0 0.0 1.0 130 130
- 2.049 0 1 cbr 500 ------- 0 0.0 1.0 133 133
+ 2.05 0 1 cbr 500 ------- 0 0.0 1.0 134 134
- 2.053 0 1 cbr 500 ------- 0 0.0 1.0 134 134
r 2.054 0 1 cbr 500 ------- 0 0.0 1.0 131 131
+ 2.055 0 1 cbr 500 ------- 0 0.0 1.0 135 135
- 2.057 0 1 cbr 500 ------- 0 0.0 1.0 135 135
r 2.059 0 1 cbr 500 ------- 0 0.0 1.0 132 132
+ 2.06 0 1 cbr 500 ------- 0 0.0 1.0 136 136
- 2.061 0 1 cbr 500 ------- 0 0.0 1.0 136 136
r 2.063 0 1 cbr 500 ------- 0 0.0 1.0 133 133
+ 2.065 0 1 cbr 500 ------- 0 0.0 1.0 137 137
- 2.065 0 1 cbr 500 ------- 0 0.0 1.0 137 137
r 2.067 0 1 cbr 500 ------- 0 0.0 1.0 134 134
+ 2.07 0 1 cbr 500 ------- 0 0.0 1.0 138 138
- 2.07 0 1 cbr 500 ------- 0 0.0 1.0 138 138
r 2.071 0 1 cbr 500 ------- 0 0.0 1.0 135 135
+ 2.075 0 1 cbr 500 ------- 0 0.0 1.0 139 139
- 2.075 0 1 cbr 500 ------- 0 0.0 1.0 139 139
r 2.075 0 1 cbr 500 ------- 0 0.0 1.0 136 136
r 2.079 0 1 cbr 500 ------- 0 0.0 1.0 137 137
+ 2.08 0 1 cbr 500 ------- 0 0.0 1.0 140 140
- 2.08 0 1 cbr 500 ------- 0 0.0 1.0 140 140
r 2.084 0 1 cbr 500 ------- 0 0.0 1.0 138 138
+ 2.085 0 1 cbr 500 ------- 0 0.0 1.0 141 141
- 2.085 0 1 cbr 500 ------- 0 0.0 1.0 141 141
+ 2.087202 0 1 cbr 500 ------- 0 0.0 1.0 142 142
r 2.089 0 1 cbr 500 ------- 0 0.0 1.0 139 139
- 2.089 0 1 cbr 500 ------- 0 0.0 1.0 142 142
+ 2.09 0 1 cbr 500 ------- 0 0.0 1.0 143 143
- 2.093 0 1 cbr 500 ------- 0 0.0 1.0 143 143
r 2.094 0 1 cbr 500 ------- 0 0.0 1.0 140 140
+ 2.095 0 1 cbr 500 ------- 0 0.0 1.0 144 144
- 2.097 0 1 cbr 500 ------- 0 0.0 1.0 144 144
r 2.099 0 1 cbr 500 ------- 0 0.0 1.0 141 141
+ 2.1 0 1 cbr 500 ------- 0 0.0 1.0 145 145
- 2.101 0 1 cbr 500 ------- 0 0.0 1.0 145 145
r 2.103 0 1 cbr 500 ------- 0 0.0 1.0 142 142
+ 2.105 0 1 cbr 500 ------- 0 0.0 1.0 146 146
- 2.105 0 1 cbr 500 ------- 0 0.0 1.0 146 146
r 2.107 0 1 cbr 500 ------- 0 0.0 1.0 143 143
+ 2.11 0 1 cbr 500 ------- 0 0.0 1.0 147 147
- 2.11 0 1 cbr 500 ------- 0 0.0 1.0 147 147
r 2.111 0 1 cbr 500 ------- 0 0.0 1.0 144 144
+ 2.115 0 1 cbr 500 ------- 0 0.0 1.0 148 148
- 2.115 0 1 cbr 500 ------- 0 0.0 1.0 148 148
r 2.115 0 1 cbr 500 ------- 0 0.0 1.0 145 145
r 2.119 0 1 cbr 500 ------- 0 0.0 1.0 146 146
+ 2.12 0 1 cbr 500 ------- 0 0.0 1.0 149 149
- 2.12 0 1 cbr 500 ------- 0 0.0 1.0 149 149
r 2.124 0 1 cbr 500 ------- 0 0.0 1.0 147 147
+ 2.125 0 1 cbr 500 ------- 0 0.0 1.0 150 150
- 2.125 0 1 cbr 500 ------- 0 0.0 1.0 150 150
+ 2.127202 0 1 cbr 500 ------- 0 0.0 1.0 151 151
r 2.129 0 1 cbr 500 ------- 0 0.0 1.0 148 148
- 2.129 0 1 cbr 500 ------- 0 0.0 1.0 151 151
+ 2.13 0 1 cbr 500 ------- 0 0.0 1.0 152 152
- 2.133 0 1 cbr 500 ------- 0 0.0 1.0 152 152
r 2.134 0 1 cbr 500 ------- 0 0.0 1.0 149 149
+ 2.135 0 1 cbr 500 ------- 0 0.0 1.0 153 153
- 2.137 0 1 cbr 500 ------- 0 0.0 1.0 153 153
r 2.139 0 1 cbr 500 ------- 0 0.0 1.0 150 150
+ 2.14 0 1 cbr 500 ------- 0 0.0 1.0 154 154
- 2.141 0 1 cbr 500 ------- 0 0.0 1.0 154 154
r 2.143 0 1 cbr 500 ------- 0 0.0 1.0 151 151
+ 2.145 0 1 cbr 500 ------- 0 0.0 1.0 155 155
- 2.145 0 1 cbr 500 ------- 0 0.0 1.0 155 155
r 2.147 0 1 cbr 500 ------- 0 0.0 1.0 152 152
+ 2.15 0 1 cbr 500 ------- 0 0.0 1.0 156 156
- 2.15 0 1 cbr 500 ------- 0 0.0 1.0 156 156
r 2.151 0 1 cbr 500 ------- 0 0.0 1.0 153 153
+ 2.155 0 1 cbr 500 ------- 0 0.0 1.0 157 157
- 2.155 0 1 cbr 500 ------- 0 0.0 1.0 157 157
r 2.155 0 1 cbr 500 ------- 0 0.0 1.0 154 154
r 2.159 0 1 cbr 500 ------- 0 0.0 1.0 155 155
+ 2.16 0 1 cbr 500 ------- 0 0.0 1.0 158 158
- 2.16 0 1 cbr 500 ------- 0 0.0 1.0 158 158
r 2.164 0 1 cbr 500 ------- 0 0.0 1.0 156 156
+ 2.165 0 1 cbr 500 ------- 0 0.0 1.0 159 159
- 2.165 0 1 cbr 500 ------- 0 0.0 1.0 159 159
+ 2.167202 0 1 cbr 500 ------- 0 0.0 1.0 160 160
r 2.169 0 1 cbr 500 ------- 0 0.0 1.0 157 157
- 2.169 0 1 cbr 500 ------- 0 0.0 1.0 160 160
+ 2.17 0 1 cbr 500 ------- 0 0.0 1.0 161 161
- 2.173 0 1 cbr 500 ------- 0 0.0 1.0 161 161
r 2.174 0 1 cbr 500 ------- 0 0.0 1.0 158 158
+ 2.175 0 1 cbr 500 ------- 0 0.0 1.0 162 162
- 2.177 0 1 cbr 500 ------- 0 0.0 1.0 162 162
r 2.179 0 1 cbr 500 ------- 0 0.0 1.0 159 159
+ 2.18 0 1 cbr 500 ------- 0 0.0 1.0 163 163
- 2.181 0 1 cbr 500 ------- 0 0.0 1.0 163 163
r 2.183 0 1 cbr 500 ------- 0 0.0 1.0 160 160
+ 2.185 0 1 cbr 500 ------- 0 0.0 1.0 164 164
- 2.185 0 1 cbr 500 ------- 0 0.0 1.0 164 164
r 2.187 0 1 cbr 500 ------- 0 0.0 1.0 161 161
+ 2.19 0 1 cbr 500 ------- 0 0.0 1.0 165 165
- 2.19 0 1 cbr 500 ------- 0 0.0 1.0 165 165
r 2.191 0 1 cbr 500 ------- 0 0.0 1.0 162 162
+ 2.195 0 1 cbr 500 ------- 0 0.0 1.0 166 166
- 2.195 0 1 cbr 500 ------- 0 0.0 1.0 166 166
r 2.195 0 1 cbr 500 ------- 0 0.0 1.0 163 163
r 2.199 0 1 cbr 500 ------- 0 0.0 1.0 164 164
+ 2.2 0 1 cbr 500 ------- 0 0.0 1.0 167 167
- 2.2 0 1 cbr 500 ------- 0 0.0 1.0 167 167
r 2.204 0 1 cbr 500 ------- 0 0.0 1.0 165 165
+ 2.205 0 1 cbr 500 ------- 0 0.0 1.0 168 168
- 2.205 0 1 cbr 500 ------- 0 0.0 1.0 168 168
+ 2.207202 0 1 cbr 500 ------- 0 0.0 1.0 169 169
r 2.209 0 1 cbr 500 ------- 0 0.0 1.0 166 166
- 2.209 0 1 cbr 500 ------- 0 0.0 1.0 169 169
+ 2.21 0 1 cbr 500 ------- 0 0.0 1.0 170 170
- 2.213 0 1 cbr 500 ------- 0 0.0 1.0 170 170
r 2.214 0 1 cbr 500 ------- 0 0.0 1.0 167 167
+ 2.215 0 1 cbr 500 ------- 0 0.0 1.0 171 171
- 2.217 0 1 cbr 500 ------- 0 0.0 1.0 171 171
r 2.219 0 1 cbr 500 ------- 0 0.0 1.0 168 168
+ 2.22 0 1 cbr 500 ------- 0 0.0 1.0 172 172
- 2.221 0 1 cbr 500 ------- 0 0.0 1.0 172 172
r 2.223 0 1 cbr 500 ------- 0 0.0 1.0 169 169
+ 2.225 0 1 cbr 500 ------- 0 0.0 1.0 173 173
- 2.225 0 1 cbr 500 ------- 0 0.0 1.0 173 173
r 2.227 0 1 cbr 500 ------- 0 0.0 1.0 170 170
+ 2.23 0 1 cbr 500 ------- 0 0.0 1.0 174 174
- 2.23 0 1 cbr 500 ------- 0 0.0 1.0 174 174
r 2.231 0 1 cbr 500 ------- 0 0.0 1.0 171 171
+ 2.235 0 1 cbr 500 ------- 0 0.0 1.0 175 175
- 2.235 0 1 cbr 500 ------- 0 0.0 1.0 175 175
r 2.235 0 1 cbr 500 ------- 0 0.0 1.0 172 172
r 2.239 0 1 cbr 500 ------- 0 0.0 1.0 173 173
+ 2.24 0 1 cbr 500 ------- 0 0.0 1.0 176 176
- 2.24 0 1 cbr 500 ------- 0 0.0 1.0 176 176
r 2.244 0 1 cbr 500 ------- 0 0.0 1.0 174 174
+ 2.245 0 1 cbr 500 ------- 0 0.0 1.0 177 177
- 2.245 0 1 cbr 500 ------- 0 0.0 1.0 177 177
+ 2.247202 0 1 cbr 500 ------- 0 0.0 1.0 178 178
r 2.249 0 1 cbr 500 ------- 0 0.0 1.0 175 175
- 2.249 0 1 cbr 500 ------- 0 0.0 1.0 178 178
+ 2.25 0 1 cbr 500 ------- 0 0.0 1.0 179 179
- 2.253 0 1 cbr 500 ------- 0 0.0 1.0 179 179
r 2.254 0 1 cbr 500 ------- 0 0.0 1.0 176 176
+ 2.255 0 1 cbr 500 ------- 0 0.0 1.0 180 180
- 2.257 0 1 cbr 500 ------- 0 0.0 1.0 180 180
r 2.259 0 1 cbr 500 ------- 0 0.0 1.0 177 177
+ 2.26 0 1 cbr 500 ------- 0 0.0 1.0 181 181
- 2.261 0 1 cbr 500 ------- 0 0.0 1.0 181 181
r 2.263 0 1 cbr 500 ------- 0 0.0 1.0 178 178
+ 2.265 0 1 cbr 500 ------- 0 0.0 1.0 182 182
- 2.265 0 1 cbr 500 ------- 0 0.0 1.0 182 182
r 2.267 0 1 cbr 500 ------- 0 0.0 1.0 179 179
+ 2.27 0 1 cbr 500 ------- 0 0.0 1.0 183 183
- 2.27 0 1 cbr 500 ------- 0 0.0 1.0 183 183
r 2.271 0 1 cbr 500 ------- 0 0.0 1.0 180 180
+ 2.275 0 1 cbr 500 ------- 0 0.0 1.0 184 184
- 2.275 0 1 cbr 500 ------- 0 0.0 1.0 184 184
r 2.275 0 1 cbr 500 ------- 0 0.0 1.0 181 181
r 2.279 0 1 cbr 500 ------- 0 0.0 1.0 182 182
+ 2.28 0 1 cbr 500 ------- 0 0.0 1.0 185 185
- 2.28 0 1 cbr 500 ------- 0 0.0 1.0 185 185
r 2.284 0 1 cbr 500 ------- 0 0.0 1.0 183 183
+ 2.285 0 1 cbr 500 ------- 0 0.0 1.0 186 186
- 2.285 0 1 cbr 500 ------- 0 0.0 1.0 186 186
+ 2.287202 0 1 cbr 500 ------- 0 0.0 1.0 187 187
r 2.289 0 1 cbr 500 ------- 0 0.0 1.0 184 184
- 2.289 0 1 cbr 500 ------- 0 0.0 1.0 187 187
+ 2.29 0 1 cbr 500 ------- 0 0.0 1.0 188 188
- 2.293 0 1 cbr 500 ------- 0 0.0 1.0 188 188
r 2.294 0 1 cbr 500 ------- 0 0.0 1.0 185 185
+ 2.295 0 1 cbr 500 ------- 0 0.0 1.0 189 189
- 2.297 0 1 cbr 500 ------- 0 0.0 1.0 189 189
r 2.299 0 1 cbr 500 ------- 0 0.0 1.0 186 186
+ 2.3 0 1 cbr 500 ------- 0 0.0 1.0 190 190
- 2.301 0 1 cbr 500 ------- 0 0.0 1.0 190 190
r 2.303 0 1 cbr 500 ------- 0 0.0 1.0 187 187
+ 2.305 0 1 cbr 500 ------- 0 0.0 1.0 191 191
- 2.305 0 1 cbr 500 ------- 0 0.0 1.0 191 191
r 2.307 0 1 cbr 500 ------- 0 0.0 1.0 188 188
+ 2.31 0 1 cbr 500 ------- 0 0.0 1.0 192 192
- 2.31 0 1 cbr 500 ------- 0 0.0 1.0 192 192
r 2.311 0 1 cbr 500 ------- 0 0.0 1.0 189 189
+ 2.315 0 1 cbr 500 ------- 0 0.0 1.0 193 193
- 2.315 0 1 cbr 500 ------- 0 0.0 1.0 193 193
r 2.315 0 1 cbr 500 ------- 0 0.0 1.0 190 190
r 2.319 0 1 cbr 500 ------- 0 0.0 1.0 191 191
+ 2.32 0 1 cbr 500 ------- 0 0.0 1.0 194 194
- 2.32 0 1 cbr 500 ------- 0 0.0 1.0 194 194
r 2.324 0 1 cbr 500 ------- 0 0.0 1.0 192 192
+ 2.325 0 1 cbr 500 ------- 0 0.0 1.0 195 195
- 2.325 0 1 cbr 500 ------- 0 0.0 1.0 195 195
+ 2.327202 0 1 cbr 500 ------- 0 0.0 1.0 196 196
r 2.329 0 1 cbr 500 ------- 0 0.0 1.0 193 193
- 2.329 0 1 cbr 500 ------- 0 0.0 1.0 196 196
+ 2.33 0 1 cbr 500 ------- 0 0.0 1.0 197 197
- 2.333 0 1 cbr 500 ------- 0 0.0 1.0 197 197
r 2.334 0 1 cbr 500 ------- 0 0.0 1.0 194 194
+ 2.335 0 1 cbr 500 ------- 0 0.0 1.0 198 198
- 2.337 0 1 cbr 500 ------- 0 0.0 1.0 198 198
r 2.339 0 1 cbr 500 ------- 0 0.0 1.0 195 195
+ 2.34 0 1 cbr 500 ------- 0 0.0 1.0 199 199
- 2.341 0 1 cbr 500 ------- 0 0.0 1.0 199 199
r 2.343 0 1 cbr 500 ------- 0 0.0 1.0 196 196
+ 2.345 0 1 cbr 500 ------- 0 0.0 1.0 200 200
- 2.345 0 1 cbr 500 ------- 0 0.0 1.0 200 200
r 2.347 0 1 cbr 500 ------- 0 0.0 1.0 197 197
+ 2.35 0 1 cbr 500 ------- 0 0.0 1.0 201 201
- 2.35 0 1 cbr 500 ------- 0 0.0 1.0 201 201
r 2.351 0 1 cbr 500 ------- 0 0.0 1.0 198 198
+ 2.355 0 1 cbr 500 ------- 0 0.0 1.0 202 202
- 2.355 0 1 cbr 500 ------- 0 0.0 1.0 202 202
r 2.355 0 1 cbr 500 ------- 0 0.0 1.0 199 199
r 2.359 0 1 cbr 500 ------- 0 0.0 1.0 200 200
+ 2.36 0 1 cbr 500 ------- 0 0.0 1.0 203 203
- 2.36 0 1 cbr 500 ------- 0 0.0 1.0 203 203
r 2.364 0 1 cbr 500 ------- 0 0.0 1.0 201 201
+ 2.365 0 1 cbr 500 ------- 0 0.0 1.0 204 204
- 2.365 0 1 cbr 500 ------- 0 0.0 1.0 204 204
+ 2.367202 0 1 cbr 500 ------- 0 0.0 1.0 205 205
r 2.369 0 1 cbr 500 ------- 0 0.0 1.0 202 202
- 2.369 0 1 cbr 500 ------- 0 0.0 1.0 205 205
+ 2.37 0 1 cbr 500 ------- 0 0.0 1.0 206 206
- 2.373 0 1 cbr 500 ------- 0 0.0 1.0 206 206
r 2.374 0 1 cbr 500 ------- 0 0.0 1.0 203 203
+ 2.375 0 1 cbr 500 ------- 0 0.0 1.0 207 207
- 2.377 0 1 cbr 500 ------- 0 0.0 1.0 207 207
r 2.379 0 1 cbr 500 ------- 0 0.0 1.0 204 204
+ 2.38 0 1 cbr 500 ------- 0 0.0 1.0 208 208
- 2.381 0 1 cbr 500 ------- 0 0.0 1.0 208 208
r 2.383 0 1 cbr 500 ------- 0 0.0 1.0 205 205
+ 2.385 0 1 cbr 500 ------- 0 0.0 1.0 209 209
- 2.385 0 1 cbr 500 ------- 0 0.0 1.0 209 209
r 2.387 0 1 cbr 500 ------- 0 0.0 1.0 206 206
+ 2.39 0 1 cbr 500 ------- 0 0.0 1.0 210 210
- 2.39 0 1 cbr 500 ------- 0 0.0 1.0 210 210
r 2.391 0 1 cbr 500 ------- 0 0.0 1.0 207 207
+ 2.395 0 1 cbr 500 ------- 0 0.0 1.0 211 211
- 2.395 0 1 cbr 500 ------- 0 0.0 1.0 211 211
r 2.395 0 1 cbr 500 ------- 0 0.0 1.0 208 208
r 2.399 0 1 cbr 500 ------- 0 0.0 1.0 209 209
+ 2.4 0 1 cbr 500 ------- 0 0.0 1.0 212 212
- 2.4 0 1 cbr 500 ------- 0 0.0 1.0 212 212
r 2.404 0 1 cbr 500 ------- 0 0.0 1.0 210 210
+ 2.405 0 1 cbr 500 ------- 0 0.0 1.0 213 213
- 2.405 0 1 cbr 500 ------- 0 0.0 1.0 213 213
+ 2.407202 0 1 cbr 500 ------- 0 0.0 1.0 214 214
r 2.409 0 1 cbr 500 ------- 0 0.0 1.0 211 211
- 2.409 0 1 cbr 500 ------- 0 0.0 1.0 214 214
+ 2.41 0 1 cbr 500 ------- 0 0.0 1.0 215 215
- 2.413 0 1 cbr 500 ------- 0 0.0 1.0 215 215
r 2.414 0 1 cbr 500 ------- 0 0.0 1.0 212 212
+ 2.415 0 1 cbr 500 ------- 0 0.0 1.0 216 216
- 2.417 0 1 cbr 500 ------- 0 0.0 1.0 216 216
r 2.419 0 1 cbr 500 ------- 0 0.0 1.0 213 213
+ 2.42 0 1 cbr 500 ------- 0 0.0 1.0 217 217
- 2.421 0 1 cbr 500 ------- 0 0.0 1.0 217 217
r 2.423 0 1 cbr 500 ------- 0 0.0 1.0 214 214
+ 2.425 0 1 cbr 500 ------- 0 0.0 1.0 218 218
- 2.425 0 1 cbr 500 ------- 0 0.0 1.0 218 218
r 2.427 0 1 cbr 500 ------- 0 0.0 1.0 215 215
+ 2.43 0 1 cbr 500 ------- 0 0.0 1.0 219 219
- 2.43 0 1 cbr 500 ------- 0 0.0 1.0 219 219
r 2.431 0 1 cbr 500 ------- 0 0.0 1.0 216 216
+ 2.435 0 1 cbr 500 ------- 0 0.0 1.0 220 220
- 2.435 0 1 cbr 500 ------- 0 0.0 1.0 220 220
r 2.435 0 1 cbr 500 ------- 0 0.0 1.0 217 217
r 2.439 0 1 cbr 500 ------- 0 0.0 1.0 218 218
+ 2.44 0 1 cbr 500 ------- 0 0.0 1.0 221 221
- 2.44 0 1 cbr 500 ------- 0 0.0 1.0 221 221
r 2.444 0 1 cbr 500 ------- 0 0.0 1.0 219 219
+ 2.445 0 1 cbr 500 ------- 0 0.0 1.0 222 222
- 2.445 0 1 cbr 500 ------- 0 0.0 1.0 222 222